1
Timestep 100
O 81 81 89.3629
1
Timestep 200
O 81 81 88.5858
1
Timestep 300
O 81 81 87.8087
1
Timestep 400
O 81 81 87.0315
1
Timestep 500
O 81 81 86.2542
1
Timestep 600
O 81 81 85.4765
1
Timestep 700
O 81 81 84.6981
1
Timestep 800
O 81 81 83.9185
1
Timestep 900
O 80.9998 81.0001 83.1252
1
Timestep 1000
O 81 80.9988 82.3355
1
Timestep 1100
O 81.0103 80.9547 82.3062
1
Timestep 1200
O 81.0254 80.8928 82.5369
1
Timestep 1300
O 81.0394 80.8358 82.7063
1
Timestep 1400
O 81.0537 80.7789 82.8683
1
Timestep 1500
O 81.0683 80.7218 83.0268
1
Timestep 1600
O 81.0831 80.6643 83.1824
1
Timestep 1700
O 81.0981 80.6065 83.3354
1
Timestep 1800
O 81.1131 80.5484 83.4862
1
Timestep 1900
O 81.1281 80.4899 83.6349
1
Timestep 2000
O 81.1432 80.4312 83.7817
1
Timestep 2100
O 81.1583 80.3722 83.9268
1
Timestep 2200
O 81.1733 80.313 84.0703
1
Timestep 2300
O 81.1884 80.2537 84.2124
1
Timestep 2400
O 81.2034 80.1943 84.3532
1
Timestep 2500
O 81.2184 80.1348 84.4929
1
Timestep 2600
O 81.2334 80.0753 84.6315
1
Timestep 2700
O 81.2484 80.0157 84.7691
1
Timestep 2800
O 81.2634 79.9562 84.9059
1
Timestep 2900
O 81.2783 79.8966 85.0418
1
Timestep 3000
O 81.2932 79.8371 85.177
1
Timestep 3100
O 81.3082 79.7776 85.3115
1
Timestep 3200
O 81.3231 79.718 85.4454
1
Timestep 3300
O 81.338 79.6585 85.5788
1
Timestep 3400
O 81.353 79.599 85.7116
1
Timestep 3500
O 81.3679 79.5395 85.844
1
Timestep 3600
O 81.3829 79.48 85.976
1
Timestep 3700
O 81.3978 79.4205 86.1076
1
Timestep 3800
O 81.4128 79.3611 86.2388
1
Timestep 3900
O 27.8149 26.8909 41.6148
1
Timestep 4000
O 27.84 26.9161 41.4838
1
Timestep 4100
O 27.8091 26.8744 41.4077
1
Timestep 4200
O 27.7243 26.7488 41.43
1
Timestep 4300
O 27.6981 26.7014 41.5147
1
Timestep 4400
O 27.7168 26.7399 41.5935
1
Timestep 4500
O 27.7366 26.8285 41.6142
1
Timestep 4600
O 27.7285 26.9441 41.568
1
Timestep 4700
O 27.6779 27.0513 41.4765
1
Timestep 4800
O 27.5973 27.1197 41.3907
1
Timestep 4900
O 27.5387 27.1564 41.3691
1
Timestep 5000
O 27.5342 27.195 41.412
1
Timestep 5100
O 27.541 27.2337 41.4639
1
Timestep 5200
O 27.5203 27.2609 41.48
1
Timestep 5300
O 27.4639 27.2725 41.4457
1
Timestep 5400
O 27.3855 27.275 41.3693
1
Timestep 5500
O 27.321 27.2932 41.2829
1
Timestep 5600
O 27.3049 27.3581 41.2314
1
Timestep 5700
O 27.2981 27.4342 41.2389
1
Timestep 5800
O 27.2426 27.4625 41.2976
1
Timestep 5900
O 27.161 27.4625 41.3599
1
Timestep 6000
O 27.1028 27.4827 41.3925
1
Timestep 6100
O 27.0854 27.5417 41.395
1
Timestep 6200
O 27.0894 27.622 41.3832
1
Timestep 6300
O 27.0665 27.6875 41.3845
1
Timestep 6400
O 27.001 27.7339 41.4107
1
Timestep 6500
O 26.9248 27.7866 41.4494
1
Timestep 6600
O 26.8719 27.8581 41.4801
1
Timestep 6700
O 26.8495 27.9346 41.4842
1
Timestep 6800
O 26.844 27.997 41.4559
1
Timestep 6900
O 26.8462 28.0294 41.4095
1
Timestep 7000
O 26.8588 27.9655 41.4005
1
Timestep 7100
O 26.8744 27.8478 41.4403
1
Timestep 7200
O 26.921 27.786 41.5048
1
Timestep 7300
O 26.9947 27.7535 41.565
1
Timestep 7400
O 27.0699 27.7064 41.5933
1
Timestep 7500
O 27.1302 27.6287 41.5838
1
Timestep 7600
O 27.1734 27.5257 41.5458
1
Timestep 7700
O 27.2178 27.425 41.5069
1
Timestep 7800
O 27.2907 27.3579 41.502
1
Timestep 7900
O 27.3841 27.3128 41.5353
1
Timestep 8000
O 27.461 27.2502 41.583
1
Timestep 8100
O 27.5176 27.1701 41.6178
1
Timestep 8200
O 27.576 27.1004 41.6207
1
Timestep 8300
O 27.646 27.0526 41.5917
1
Timestep 8400
O 27.7138 27.0069 41.5471
1
Timestep 8500
O 27.7575 26.9361 41.5144
1
Timestep 8600
O 27.7483 26.8472 41.5163
1
Timestep 8700
O 27.7525 26.7734 41.5272
1
Timestep 8800
O 27.783 26.7629 41.5394
1
Timestep 8900
O 27.8094 26.7938 41.5418
1
Timestep 9000
O 27.8062 26.8035 41.5286
1
Timestep 9100
O 27.7744 26.7776 41.5104
1
Timestep 9200
O 27.7488 26.7526 41.5001
1
Timestep 9300
O 27.763 26.7629 41.508
1
Timestep 9400
O 27.7989 26.779 41.5259
1
Timestep 9500
O 27.7915 26.7865 41.5564
1
Timestep 9600
O 27.7537 26.7945 41.5829
1
Timestep 9700
O 27.722 26.8198 41.5898
1
Timestep 9800
O 27.7054 26.8686 41.5804
1
Timestep 9900
O 27.6974 26.9246 41.5647
1
Timestep 10000
O 27.6809 26.9583 41.5546
1
Timestep 10100
O 27.6551 26.956 41.5644
1
Timestep 10200
O 27.636 26.936 41.5934
1
Timestep 10300
O 27.6295 26.9191 41.6271
1
Timestep 10400
O 27.6276 26.909 41.6509
1
Timestep 10500
O 27.6185 26.9006 41.6559
1
Timestep 10600
O 27.596 26.888 41.6409
1
Timestep 10700
O 27.5675 26.8777 41.6086
1
Timestep 10800
O 27.5482 26.88 41.5657
1
Timestep 10900
O 27.5414 26.8914 41.5185
1
Timestep 11000
O 27.5405 26.902 41.4698
1
Timestep 11100
O 27.5515 26.9137 41.4229
1
Timestep 11200
O 27.5838 26.9358 41.376
1
Timestep 11300
O 27.6271 26.9645 41.3233
1
Timestep 11400
O 27.6558 26.9782 41.2655
1
Timestep 11500
O 27.6557 26.9765 41.2403
1
Timestep 11600
O 27.6511 27.0002 41.2593
1
Timestep 11700
O 27.6709 27.0379 41.2791
1
Timestep 11800
O 27.6842 27.0571 41.3018
1
Timestep 11900
O 27.6761 27.0449 41.3282
1
Timestep 12000
O 27.667 27.024 41.3535
1
Timestep 12100
O 27.6671 27.0051 41.3756
1
Timestep 12200
O 27.6739 26.9856 41.3949
1
Timestep 12300
O 27.6773 26.9575 41.4141
1
Timestep 12400
O 27.6589 26.9192 41.4393
1
Timestep 12500
O 27.6422 26.8754 41.4668
1
Timestep 12600
O 27.6427 26.8351 41.4933
1
Timestep 12700
O 27.6584 26.8005 41.5159
1
Timestep 12800
O 27.6764 26.7632 41.534
1
Timestep 12900
O 27.6842 26.7333 41.5511
1
Timestep 13000
O 27.6746 26.761 41.5784
1
Timestep 13100
O 27.6539 26.8058 41.5967
1
Timestep 13200
O 27.6326 26.8511 41.6066
1
Timestep 13300
O 27.6221 26.8986 41.6173
1
Timestep 13400
O 27.6176 26.9433 41.6299
1
Timestep 13500
O 27.6148 26.9857 41.6398
1
Timestep 13600
O 27.6134 27.0313 41.6394
1
Timestep 13700
O 27.6054 27.0757 41.6225
1
Timestep 13800
O 27.5861 27.1145 41.5872
1
Timestep 13900
O 27.5566 27.1466 41.5373
1
Timestep 14000
O 27.5233 27.1728 41.4843
1
Timestep 14100
O 27.4892 27.189 41.4448
1
Timestep 14200
O 27.4591 27.1963 41.4312
1
Timestep 14300
O 27.4439 27.2046 41.4505
1
Timestep 14400
O 27.4398 27.2145 41.495
1
Timestep 14500
O 27.4257 27.2124 41.5478
1
Timestep 14600
O 27.3867 27.1877 41.5945
1
Timestep 14700
O 27.3402 27.1575 41.6235
1
Timestep 14800
O 27.3131 27.1462 41.6368
1
Timestep 14900
O 27.3117 27.1586 41.6446
1
Timestep 15000
O 27.3176 27.1752 41.6598
1
Timestep 15100
O 27.3167 27.1809 41.6891
1
Timestep 15200
O 27.3175 27.1849 41.7277
1
Timestep 15300
O 27.3387 27.209 41.7618
1
Timestep 15400
O 27.3838 27.2595 41.7824
1
Timestep 15500
O 27.4303 27.3145 41.7847
1
Timestep 15600
O 27.4439 27.3372 41.7761
1
Timestep 15700
O 27.4139 27.3129 41.7714
1
Timestep 15800
O 27.3731 27.2738 41.7773
1
Timestep 15900
O 27.3685 27.2657 41.8016
1
Timestep 16000
O 27.404 27.2928 41.844
1
Timestep 16100
O 27.4396 27.3194 41.8856
1
Timestep 16200
O 27.4443 27.3189 41.9091
1
Timestep 16300
O 27.4232 27.2986 41.9019
1
Timestep 16400
O 27.4064 27.2863 41.8625
1
Timestep 16500
O 27.4193 27.3039 41.8059
1
Timestep 16600
O 27.4532 27.3408 41.7467
1
Timestep 16700
O 27.4677 27.3561 41.6983
1
Timestep 16800
O 27.4315 27.316 41.6758
1
Timestep 16900
O 27.373 27.249 41.6734
1
Timestep 17000
O 27.3504 27.2152 41.6839
1
Timestep 17100
O 27.3782 27.231 41.6969
1
Timestep 17200
O 27.4162 27.2579 41.6984
1
Timestep 17300
O 27.418 27.248 41.7042
1
Timestep 17400
O 27.3865 27.2027 41.7338
1
Timestep 17500
O 27.3793 27.1758 41.7917
1
Timestep 17600
O 27.4318 27.2003 41.8711
1
Timestep 17700
O 27.515 27.252 41.9446
1
Timestep 17800
O 27.5731 27.2843 41.9946
1
Timestep 17900
O 27.5808 27.2777 42.0152
1
Timestep 18000
O 27.5579 27.2495 42.0004
1
Timestep 18100
O 27.5523 27.2397 41.9621
1
Timestep 18200
O 27.5975 27.273 41.9298
1
Timestep 18300
O 27.6645 27.3183 41.9183
1
Timestep 18400
O 27.704 27.3249 41.923
1
Timestep 18500
O 27.7101 27.2948 41.9186
1
Timestep 18600
O 27.7044 27.2618 41.8881
1
Timestep 18700
O 27.714 27.2549 41.8393
1
Timestep 18800
O 27.7533 27.2792 41.7916
1
Timestep 18900
O 27.8001 27.3017 41.7532
1
Timestep 19000
O 27.8221 27.2872 41.7222
1
Timestep 19100
O 27.8159 27.2439 41.6846
1
Timestep 19200
O 27.8055 27.2101 41.6249
1
Timestep 19300
O 27.8152 27.2096 41.5434
1
Timestep 19400
O 27.8419 27.2287 41.4513
1
Timestep 19500
O 27.8487 27.2103 41.3696
1
Timestep 19600
O 27.8289 27.1475 41.3541
1
Timestep 19700
O 27.846 27.0972 41.3839
1
Timestep 19800
O 27.8963 27.0938 41.4275
1
Timestep 19900
O 27.9028 27.1077 41.4735
1
Timestep 20000
O 27.8655 27.0886 41.5043
1
Timestep 20100
O 27.7914 27.0352 41.5197
1
Timestep 20200
O 27.7274 26.9954 41.5254
1
Timestep 20300
O 27.7171 27.0063 41.5326
1
Timestep 20400
O 27.7354 27.0391 41.543
1
Timestep 20500
O 27.7234 27.0289 41.5609
1
Timestep 20600
O 27.6713 26.9679 41.5855
1
Timestep 20700
O 27.6388 26.9206 41.6103
1
Timestep 20800
O 27.6715 26.9278 41.6381
1
Timestep 20900
O 27.731 26.9598 41.659
1
Timestep 21000
O 27.7511 26.9545 41.6732
1
Timestep 21100
O 27.7162 26.8957 41.6834
1
Timestep 21200
O 27.6689 26.8254 41.6854
1
Timestep 21300
O 27.664 26.7878 41.6901
1
Timestep 21400
O 27.7037 26.7763 41.7109
1
Timestep 21500
O 27.7381 26.7442 41.7451
1
Timestep 21600
O 27.7393 26.6782 41.773
1
Timestep 21700
O 27.718 26.6097 41.7693
1
Timestep 21800
O 27.6935 26.5714 41.7228
1
Timestep 21900
O 27.675 26.5729 41.6372
1
Timestep 22000
O 27.6612 26.5996 41.5274
1
Timestep 22100
O 27.6492 26.6125 41.4203
1
Timestep 22200
O 27.6453 26.5748 41.3449
1
Timestep 22300
O 27.6264 26.5095 41.3137
1
Timestep 22400
O 27.6001 26.4724 41.3129
1
Timestep 22500
O 27.609 26.4831 41.3111
1
Timestep 22600
O 27.622 26.5258 41.2887
1
Timestep 22700
O 27.6106 26.5728 41.2398
1
Timestep 22800
O 27.579 26.6126 41.1798
1
Timestep 22900
O 27.5521 26.6676 41.2112
1
Timestep 23000
O 27.5545 26.7479 41.3375
1
Timestep 23100
O 27.5747 26.8339 41.4699
1
Timestep 23200
O 27.5845 26.9136 41.5895
1
Timestep 23300
O 27.5781 26.9862 41.689
1
Timestep 23400
O 27.5662 27.0626 41.7653
1
Timestep 23500
O 27.564 27.1548 41.8201
1
Timestep 23600
O 27.5718 27.2591 41.8592
1
Timestep 23700
O 27.571 27.3573 41.884
1
Timestep 23800
O 27.5409 27.4297 41.8939
1
Timestep 23900
O 27.477 27.4714 41.8886
1
Timestep 24000
O 27.4008 27.5016 41.8677
1
Timestep 24100
O 27.3438 27.5509 41.8394
1
Timestep 24200
O 27.3095 27.6244 41.8109
1
Timestep 24300
O 27.2686 27.6916 41.7819
1
Timestep 24400
O 27.1994 27.7264 41.748
1
Timestep 24500
O 27.1132 27.734 41.6938
1
Timestep 24600
O 27.0434 27.7447 41.6078
1
Timestep 24700
O 27.0107 27.7835 41.4966
1
Timestep 24800
O 26.9918 27.8411 41.3809
1
Timestep 24900
O 26.9223 27.8857 41.29
1
Timestep 25000
O 26.8047 27.8928 41.2471
1
Timestep 25100
O 26.7331 27.9079 41.2609
1
Timestep 25200
O 26.7154 27.9773 41.3115
1
Timestep 25300
O 26.6849 28.0315 41.3739
1
Timestep 25400
O 26.6228 28.0171 41.4465
1
Timestep 25500
O 26.5841 27.9638 41.5253
1
Timestep 25600
O 26.5895 27.9323 41.6064
1
Timestep 25700
O 26.6417 27.962 41.6935
1
Timestep 25800
O 26.7062 28.0129 41.7802
1
Timestep 25900
O 26.7376 28.0226 41.8655
1
Timestep 26000
O 26.7381 27.9851 41.9371
1
Timestep 26100
O 26.7482 27.931 41.9748
1
Timestep 26200
O 26.7991 27.8893 41.9735
1
Timestep 26300
O 26.8856 27.8639 41.941
1
Timestep 26400
O 26.9635 27.8254 41.8949
1
Timestep 26500
O 26.9886 27.7485 41.8616
1
Timestep 26600
O 26.977 27.6563 41.8562
1
Timestep 26700
O 26.99 27.6055 41.8804
1
Timestep 26800
O 27.0333 27.5912 41.9143
1
Timestep 26900
O 27.0626 27.5612 41.9323
1
Timestep 27000
O 27.0454 27.4835 41.9298
1
Timestep 27100
O 27.0103 27.3873 41.9126
1
Timestep 27200
O 27.0152 27.3336 41.9085
1
Timestep 27300
O 27.0699 27.333 41.926
1
Timestep 27400
O 27.1217 27.3299 41.9415
1
Timestep 27500
O 27.1205 27.272 41.9442
1
Timestep 27600
O 27.0809 27.175 41.9275
1
Timestep 27700
O 27.0689 27.1073 41.9033
1
Timestep 27800
O 27.1314 27.1152 41.897
1
Timestep 27900
O 27.2379 27.1664 41.9048
1
Timestep 28000
O 27.3059 27.1718 41.9243
1
Timestep 28100
O 27.3111 27.1053 41.9551
1
Timestep 28200
O 27.3226 27.0449 41.9861
1
Timestep 28300
O 27.4021 27.0589 42.0265
1
Timestep 28400
O 27.5338 27.1359 42.058
1
Timestep 28500
O 27.6567 27.2097 42.0607
1
Timestep 28600
O 27.7264 27.221 42.0512
1
Timestep 28700
O 27.7524 27.1753 42.0433
1
Timestep 28800
O 27.7989 27.1424 42.0463
1
Timestep 28900
O 27.9019 27.1542 42.0689
1
Timestep 29000
O 28.0112 27.1619 42.0997
1
Timestep 29100
O 28.0394 27.138 42.1453
1
Timestep 29200
O 27.9898 27.099 42.1778
1
Timestep 29300
O 27.9168 27.0736 42.1627
1
Timestep 29400
O 27.8515 27.0853 42.1081
1
Timestep 29500
O 27.8117 27.1295 42.0403
1
Timestep 29600
O 27.7802 27.1628 41.9924
1
Timestep 29700
O 27.7204 27.1403 41.9758
1
Timestep 29800
O 27.6372 27.088 41.9621
1
Timestep 29900
O 27.5647 27.0569 41.9246
1
Timestep 30000
O 27.5238 27.0687 41.8595
1
Timestep 30100
O 27.4982 27.1036 41.7724
1
Timestep 30200
O 27.4498 27.1193 41.6758
1
Timestep 30300
O 27.3803 27.1096 41.5834
1
Timestep 30400
O 27.3559 27.1211 41.5128
1
Timestep 30500
O 27.3933 27.1616 41.4764
1
Timestep 30600
O 27.4157 27.1726 41.4665
1
Timestep 30700
O 27.4034 27.1441 41.4714
1
Timestep 30800
O 27.4216 27.1324 41.4914
1
Timestep 30900
O 27.4917 27.155 41.531
1
Timestep 31000
O 27.5555 27.1599 41.5819
1
Timestep 31100
O 27.5831 27.1205 41.6362
1
Timestep 31200
O 27.6038 27.0759 41.6815
1
Timestep 31300
O 27.6452 27.064 41.7089
1
Timestep 31400
O 27.7024 27.0855 41.7139
1
Timestep 31500
O 27.7532 27.1096 41.7035
1
Timestep 31600
O 27.781 27.0941 41.6966
1
Timestep 31700
O 27.793 27.0288 41.7046
1
Timestep 31800
O 27.8151 26.9546 41.7313
1
Timestep 31900
O 27.8434 26.9607 41.7972
1
Timestep 32000
O 27.8689 27.0004 41.8704
1
Timestep 32100
O 27.8628 27.0186 41.9289
1
Timestep 32200
O 27.8156 27.0167 41.9634
1
Timestep 32300
O 27.7524 27.023 41.9655
1
Timestep 32400
O 27.7007 27.0541 41.942
1
Timestep 32500
O 27.6727 27.1072 41.9111
1
Timestep 32600
O 27.6537 27.1555 41.8941
1
Timestep 32700
O 27.6241 27.1753 41.9023
1
Timestep 32800
O 27.5826 27.17 41.9292
1
Timestep 32900
O 27.5419 27.1661 41.9498
1
Timestep 33000
O 27.5116 27.1836 41.9433
1
Timestep 33100
O 27.4894 27.22 41.909
1
Timestep 33200
O 27.461 27.2531 41.8618
1
Timestep 33300
O 27.4111 27.2553 41.8262
1
Timestep 33400
O 27.3563 27.2394 41.8172
1
Timestep 33500
O 27.3343 27.2495 41.8307
1
Timestep 33600
O 27.3485 27.297 41.8449
1
Timestep 33700
O 27.368 27.3558 41.8363
1
Timestep 33800
O 27.3669 27.3991 41.8032
1
Timestep 33900
O 27.3427 27.421 41.7617
1
Timestep 34000
O 27.3192 27.4417 41.7348
1
Timestep 34100
O 27.3098 27.475 41.7387
1
Timestep 34200
O 27.2965 27.5072 41.7695
1
Timestep 34300
O 27.2671 27.5254 41.8028
1
Timestep 34400
O 27.23 27.5309 41.8095
1
Timestep 34500
O 27.2013 27.5341 41.7781
1
Timestep 34600
O 27.1836 27.5397 41.7197
1
Timestep 34700
O 27.1581 27.5408 41.6642
1
Timestep 34800
O 27.104 27.5342 41.6487
1
Timestep 34900
O 27.0403 27.5438 41.6838
1
Timestep 35000
O 26.9817 27.5717 41.7418
1
Timestep 35100
O 26.9237 27.5932 41.7825
1
Timestep 35200
O 26.8549 27.5861 41.7873
1
Timestep 35300
O 26.7793 27.5555 41.7573
1
Timestep 35400
O 26.7195 27.5375 41.7139
1
Timestep 35500
O 26.7073 27.5719 41.7014
1
Timestep 35600
O 26.771 27.6106 41.7605
1
Timestep 35700
O 26.7967 27.5903 41.8573
1
Timestep 35800
O 26.7756 27.5204 41.9477
1
Timestep 35900
O 26.7707 27.456 42.0069
1
Timestep 36000
O 26.819 27.4414 42.0398
1
Timestep 36100
O 26.916 27.4762 42.055
1
Timestep 36200
O 27.0068 27.5047 42.0656
1
Timestep 36300
O 27.0323 27.4725 42.1004
1
Timestep 36400
O 27.0214 27.4093 42.1564
1
Timestep 36500
O 27.0391 27.3807 42.2168
1
Timestep 36600
O 27.1042 27.4041 42.2674
1
Timestep 36700
O 27.19 27.4475 42.2877
1
Timestep 36800
O 27.2598 27.4704 42.2684
1
Timestep 36900
O 27.2919 27.4499 42.2175
1
Timestep 37000
O 27.2902 27.3905 42.1525
1
Timestep 37100
O 27.2933 27.3368 42.0939
1
Timestep 37200
O 27.3415 27.3369 42.0602
1
Timestep 37300
O 27.422 27.3757 42.0368
1
Timestep 37400
O 27.4852 27.3949 42.0023
1
Timestep 37500
O 27.498 27.3555 41.9593
1
Timestep 37600
O 27.4692 27.268 41.9119
1
Timestep 37700
O 27.4466 27.1841 41.8712
1
Timestep 37800
O 27.4686 27.1409 41.8549
1
Timestep 37900
O 27.5073 27.1078 41.8544
1
Timestep 38000
O 27.518 27.0406 41.8509
1
Timestep 38100
O 27.503 26.9485 41.832
1
Timestep 38200
O 27.5008 26.8735 41.8025
1
Timestep 38300
O 27.5444 26.8434 41.7759
1
Timestep 38400
O 27.6199 26.8416 41.7505
1
Timestep 38500
O 27.6843 26.8243 41.7252
1
Timestep 38600
O 27.7119 26.8053 41.7228
1
Timestep 38700
O 27.7275 26.8074 41.752
1
Timestep 38800
O 27.7725 26.8238 41.7885
1
Timestep 38900
O 27.8401 26.8621 41.8127
1
Timestep 39000
O 27.8957 26.908 41.812
1
Timestep 39100
O 27.9155 26.9412 41.7914
1
Timestep 39200
O 27.8997 26.9467 41.7695
1
Timestep 39300
O 27.8821 26.9343 41.7624
1
Timestep 39400
O 27.9061 26.9323 41.7752
1
Timestep 39500
O 27.9592 26.9369 41.8021
1
Timestep 39600
O 27.9912 26.9166 41.8284
1
Timestep 39700
O 27.9844 26.8688 41.8354
1
Timestep 39800
O 27.9603 26.8274 41.8094
1
Timestep 39900
O 27.9489 26.8215 41.7558
1
Timestep 40000
O 27.9724 26.8596 41.6931
1
Timestep 40100
O 28.0144 26.9141 41.6289
1
Timestep 40200
O 28.0339 26.9271 41.5712
1
Timestep 40300
O 28.0187 26.8796 41.5234
1
Timestep 40400
O 27.9993 26.8341 41.477
1
Timestep 40500
O 27.9966 26.8999 41.4555
1
Timestep 40600
O 27.9911 27.0004 41.4412
1
Timestep 40700
O 27.9418 27.0298 41.4426
1
Timestep 40800
O 27.8681 26.9942 41.4685
1
Timestep 40900
O 27.8526 26.9764 41.5076
1
Timestep 41000
O 27.8618 27.0186 41.568
1
Timestep 41100
O 27.8162 27.1016 41.6489
1
Timestep 41200
O 27.7525 27.1866 41.7187
1
Timestep 41300
O 27.6695 27.2624 41.7692
1
Timestep 41400
O 27.5748 27.3328 41.801
1
Timestep 41500
O 27.4903 27.4156 41.8171
1
Timestep 41600
O 27.4162 27.5098 41.818
1
Timestep 41700
O 27.3303 27.5921 41.8071
1
Timestep 41800
O 27.2256 27.6553 41.7905
1
Timestep 41900
O 27.1201 27.7184 41.7715
1
Timestep 42000
O 27.0313 27.8027 41.7602
1
Timestep 42100
O 26.9508 27.9041 41.7613
1
Timestep 42200
O 26.8606 28.0025 41.7667
1
Timestep 42300
O 26.7664 28.0905 41.7586
1
Timestep 42400
O 26.6839 28.165 41.7187
1
Timestep 42500
O 26.6333 28.2204 41.6468
1
Timestep 42600
O 26.683 28.2407 41.5849
1
Timestep 42700
O 26.7726 28.2155 41.5478
1
Timestep 42800
O 26.7904 28.1449 41.5397
1
Timestep 42900
O 26.7654 28.0728 41.5606
1
Timestep 43000
O 26.7571 28.0525 41.592
1
Timestep 43100
O 26.7798 28.0646 41.6161
1
Timestep 43200
O 26.8269 28.0577 41.6279
1
Timestep 43300
O 26.8516 28.0074 41.6252
1
Timestep 43400
O 26.8506 27.9367 41.6216
1
Timestep 43500
O 26.8676 27.9087 41.634
1
Timestep 43600
O 26.9259 27.948 41.6661
1
Timestep 43700
O 26.995 28.0105 41.7043
1
Timestep 43800
O 27.0262 28.0405 41.7445
1
Timestep 43900
O 27.0157 28.0278 41.7795
1
Timestep 44000
O 27.0018 28.0092 41.8025
1
Timestep 44100
O 27.0184 28.0246 41.8175
1
Timestep 44200
O 27.0506 28.0637 41.835
1
Timestep 44300
O 27.0465 28.082 41.8708
1
Timestep 44400
O 26.9886 28.0617 41.9235
1
Timestep 44500
O 26.9112 28.0191 41.9631
1
Timestep 44600
O 26.8586 27.9835 41.9649
1
Timestep 44700
O 26.8506 27.9726 41.9242
1
Timestep 44800
O 26.8701 27.9738 41.8495
1
Timestep 44900
O 26.8632 27.9529 41.775
1
Timestep 45000
O 26.7871 27.8896 41.7383
1
Timestep 45100
O 26.6847 27.8232 41.7287
1
Timestep 45200
O 26.6214 27.8044 41.7176
1
Timestep 45300
O 26.6081 27.8257 41.6823
1
Timestep 45400
O 26.6218 27.8521 41.6125
1
Timestep 45500
O 26.6269 27.853 41.5154
1
Timestep 45600
O 26.5998 27.828 41.4165
1
Timestep 45700
O 26.5906 27.8192 41.3698
1
Timestep 45800
O 26.6063 27.8482 41.4351
1
Timestep 45900
O 26.5927 27.8827 41.5353
1
Timestep 46000
O 26.5539 27.9012 41.633
1
Timestep 46100
O 26.5274 27.9168 41.709
1
Timestep 46200
O 26.535 27.9396 41.7519
1
Timestep 46300
O 26.5778 27.9712 41.7603
1
Timestep 46400
O 26.6363 28.0026 41.7425
1
Timestep 46500
O 26.6741 28.0159 41.7178
1
Timestep 46600
O 26.6698 28.0033 41.7045
1
Timestep 46700
O 26.6491 27.9857 41.6993
1
Timestep 46800
O 26.6386 27.9798 41.6891
1
Timestep 46900
O 26.632 27.9724 41.6645
1
Timestep 47000
O 26.6115 27.9441 41.6247
1
Timestep 47100
O 26.569 27.8943 41.5786
1
Timestep 47200
O 26.5308 27.849 41.5445
1
Timestep 47300
O 26.5464 27.8185 41.5538
1
Timestep 47400
O 26.5453 27.7829 41.5972
1
Timestep 47500
O 26.5058 27.7266 41.6506
1
Timestep 47600
O 26.4747 27.675 41.692
1
Timestep 47700
O 26.4823 27.6509 41.7132
1
Timestep 47800
O 26.5274 27.6564 41.7182
1
Timestep 47900
O 26.5804 27.6716 41.718
1
Timestep 48000
O 26.6013 27.6747 41.7324
1
Timestep 48100
O 26.5875 27.6705 41.7728
1
Timestep 48200
O 26.5776 27.6849 41.8286
1
Timestep 48300
O 26.6022 27.7302 41.8778
1
Timestep 48400
O 26.6608 27.7952 41.9023
1
Timestep 48500
O 26.7299 27.8596 41.9035
1
Timestep 48600
O 26.772 27.9043 41.9072
1
Timestep 48700
O 26.778 27.9399 41.9424
1
Timestep 48800
O 26.7795 27.9988 42.009
1
Timestep 48900
O 26.8012 28.0875 42.0805
1
Timestep 49000
O 26.8355 28.1737 42.1264
1
Timestep 49100
O 26.861 28.2235 42.1351
1
Timestep 49200
O 26.8646 28.2254 42.1098
1
Timestep 49300
O 26.8453 28.1876 42.0603
1
Timestep 49400
O 26.8154 28.1401 42.0059
1
Timestep 49500
O 26.7967 28.1264 41.9738
1
Timestep 49600
O 26.779 28.1474 41.9766
1
Timestep 49700
O 26.7359 28.1654 41.9941
1
Timestep 49800
O 26.6719 28.1561 41.9904
1
Timestep 49900
O 26.6097 28.1184 41.9429
1
Timestep 50000
O 26.5708 28.066 41.8504
